# lammps data file 
8560 atoms
3 atom types
0.0  48.6624 xlo xhi
0.0  47.1768 ylo yhi
0.0  88.09531292 zlo zhi
0  0  -22.64410903 xy xz yz

Masses

1 12.0107
2 69.7230
3 15.9990

Atoms  # charge

1	2	1.8	0	4.414599453	1.05981383
2	2	1.8	0	3.007030815	3.998218014
3	3	-1.2	0	0.144099419	1.874252621
4	3	-1.2	0	0.008541385	5.786302144
5	3	-1.2	0	0.051671971	9.697179306
6	2	1.8	1.5207	2.907875852	6.921615986
7	2	1.8	1.5207	1.500307215	9.86002017
8	3	-1.2	1.5207	-1.362624182	7.736054777
9	3	-1.2	1.5207	-1.498182216	11.6481043
10	3	-1.2	1.5207	1.558395572	3.835377151
11	2	1.8	0	-1.517068266	10.64948768
12	2	1.8	0	-0.109529763	7.711200736
13	3	-1.2	0	2.753431768	9.835048893
14	3	-1.2	0	2.888989802	5.92299937
15	3	-1.2	0	2.845829081	2.012239444
16	2	1.8	1.5207	-0.010344665	4.787685529
17	2	1.8	1.5207	1.397193838	1.84939858
18	3	-1.2	1.5207	4.260155369	3.973246737
19	3	-1.2	1.5207	4.395713403	0.061197215
20	3	-1.2	1.5207	1.33910548	7.8740416
21	2	1.8	41.0589	38.29047585	6.921615986
22	2	1.8	41.0589	36.88290722	9.86002017
23	2	1.8	39.5382	39.79719945	1.05981383
24	2	1.8	41.0589	36.77979384	1.84939858
25	3	-1.2	41.0589	39.7783134	0.061197215
26	2	1.8	44.1003	38.29047585	6.921615986
27	2	1.8	44.1003	36.88290722	9.86002017
28	3	-1.2	42.5796	38.13603177	9.835048893
29	2	1.8	42.5796	39.79719945	1.05981383
30	2	1.8	42.5796	38.38963082	3.998218014
31	3	-1.2	42.5796	38.22842908	2.012239444
32	2	1.8	44.1003	36.77979384	1.84939858
33	3	-1.2	44.1003	39.64275537	3.973246737
34	3	-1.2	44.1003	39.7783134	0.061197215
35	2	1.8	47.1417	38.29047585	6.921615986
36	2	1.8	47.1417	36.88290722	9.86002017
37	3	-1.2	45.621	38.13603177	9.835048893
38	2	1.8	45.621	39.79719945	1.05981383
39	2	1.8	45.621	38.38963082	3.998218014
40	3	-1.2	45.621	38.22842908	2.012239444
41	2	1.8	47.1417	36.77979384	1.84939858
42	3	-1.2	47.1417	39.64275537	3.973246737
43	3	-1.2	47.1417	39.7783134	0.061197215
44	2	1.8	1.5207	38.29047585	6.921615986
45	2	1.8	1.5207	36.88290722	9.86002017
46	3	-1.2	0	38.13603177	9.835048893
47	2	1.8	0	39.79719945	1.05981383
48	2	1.8	0	38.38963082	3.998218014
49	3	-1.2	0	38.22842908	2.012239444
50	2	1.8	1.5207	36.77979384	1.84939858
51	3	-1.2	1.5207	39.64275537	3.973246737
52	3	-1.2	1.5207	39.7783134	0.061197215
53	2	1.8	4.5621	38.29047585	6.921615986
54	2	1.8	4.5621	36.88290722	9.86002017
55	3	-1.2	3.0414	38.13603177	9.835048893
56	2	1.8	3.0414	39.79719945	1.05981383
57	2	1.8	3.0414	38.38963082	3.998218014
58	3	-1.2	3.0414	38.22842908	2.012239444
59	2	1.8	4.5621	36.77979384	1.84939858
60	3	-1.2	4.5621	39.64275537	3.973246737
61	3	-1.2	4.5621	39.7783134	0.061197215
62	2	1.8	7.6035	38.29047585	6.921615986
63	2	1.8	7.6035	36.88290722	9.86002017
64	3	-1.2	6.0828	38.13603177	9.835048893
65	2	1.8	6.0828	39.79719945	1.05981383
66	2	1.8	6.0828	38.38963082	3.998218014
67	3	-1.2	6.0828	38.22842908	2.012239444
68	2	1.8	7.6035	36.77979384	1.84939858
69	3	-1.2	7.6035	39.7783134	0.061197215
70	2	1.8	9.1242	39.79719945	1.05981383
71	2	1.8	38.0175	44.18757585	6.921615986
72	2	1.8	38.0175	42.78000722	9.86002017
73	2	1.8	36.4968	45.69429945	1.05981383
74	2	1.8	38.0175	42.67689384	1.84939858
75	3	-1.2	38.0175	45.6754134	0.061197215
76	2	1.8	39.5382	44.28673082	3.998218014
77	3	-1.2	39.5382	41.33137197	9.697179306
78	2	1.8	41.0589	44.18757585	6.921615986
79	2	1.8	41.0589	42.78000722	9.86002017
80	3	-1.2	41.0589	39.91707582	7.736054777
81	3	-1.2	41.0589	39.78151778	11.6481043
82	3	-1.2	41.0589	42.83809557	3.835377151
83	2	1.8	39.5382	39.76263173	10.64948768
84	2	1.8	39.5382	41.17017024	7.711200736
85	3	-1.2	39.5382	44.03313177	9.835048893
86	3	-1.2	39.5382	44.1686898	5.92299937
87	2	1.8	41.0589	41.26935534	4.787685529
88	2	1.8	41.0589	42.67689384	1.84939858
89	3	-1.2	41.0589	45.53985537	3.973246737
90	3	-1.2	41.0589	42.61880548	7.8740416
91	2	1.8	39.5382	45.69429945	1.05981383
92	3	-1.2	39.5382	41.42379942	1.874252621
93	3	-1.2	39.5382	44.12552908	2.012239444
94	3	-1.2	41.0589	45.6754134	0.061197215
95	2	1.8	42.5796	45.69429945	1.05981383
96	2	1.8	42.5796	44.28673082	3.998218014
97	3	-1.2	42.5796	41.28824139	5.786302144
98	3	-1.2	42.5796	41.33137197	9.697179306
99	2	1.8	44.1003	44.18757585	6.921615986
100	2	1.8	44.1003	42.78000722	9.86002017
101	3	-1.2	44.1003	39.91707582	7.736054777
102	3	-1.2	44.1003	39.78151778	11.6481043
103	3	-1.2	44.1003	42.83809557	3.835377151
104	2	1.8	42.5796	39.76263173	10.64948768
105	2	1.8	42.5796	41.17017024	7.711200736
106	3	-1.2	42.5796	44.03313177	9.835048893
107	3	-1.2	42.5796	44.1686898	5.92299937
108	3	-1.2	42.5796	44.12552908	2.012239444
109	2	1.8	44.1003	41.26935534	4.787685529
110	2	1.8	44.1003	42.67689384	1.84939858
111	3	-1.2	44.1003	45.53985537	3.973246737
112	3	-1.2	44.1003	42.61880548	7.8740416
113	3	-1.2	42.5796	41.42379942	1.874252621
114	3	-1.2	44.1003	45.6754134	0.061197215
115	2	1.8	45.621	45.69429945	1.05981383
116	2	1.8	45.621	44.28673082	3.998218014
117	3	-1.2	45.621	41.28824139	5.786302144
118	3	-1.2	45.621	41.33137197	9.697179306
119	2	1.8	47.1417	44.18757585	6.921615986
120	2	1.8	47.1417	42.78000722	9.86002017
121	3	-1.2	47.1417	39.91707582	7.736054777
122	3	-1.2	47.1417	39.78151778	11.6481043
123	3	-1.2	47.1417	42.83809557	3.835377151
124	2	1.8	45.621	39.76263173	10.64948768
125	2	1.8	45.621	41.17017024	7.711200736
126	3	-1.2	45.621	44.03313177	9.835048893
127	3	-1.2	45.621	44.1686898	5.92299937
128	3	-1.2	45.621	44.12552908	2.012239444
129	2	1.8	47.1417	41.26935534	4.787685529
130	2	1.8	47.1417	42.67689384	1.84939858
131	3	-1.2	47.1417	45.53985537	3.973246737
132	3	-1.2	47.1417	42.61880548	7.8740416
133	3	-1.2	45.621	41.42379942	1.874252621
134	3	-1.2	47.1417	45.6754134	0.061197215
135	2	1.8	0	45.69429945	1.05981383
136	2	1.8	0	44.28673082	3.998218014
137	3	-1.2	0	41.28824139	5.786302144
138	3	-1.2	0	41.33137197	9.697179306
139	2	1.8	1.5207	44.18757585	6.921615986
140	2	1.8	1.5207	42.78000722	9.86002017
141	3	-1.2	1.5207	39.91707582	7.736054777
142	3	-1.2	1.5207	39.78151778	11.6481043
143	3	-1.2	1.5207	42.83809557	3.835377151
144	2	1.8	0	39.76263173	10.64948768
145	2	1.8	0	41.17017024	7.711200736
146	3	-1.2	0	44.03313177	9.835048893
147	3	-1.2	0	44.1686898	5.92299937
148	3	-1.2	0	44.12552908	2.012239444
149	2	1.8	1.5207	41.26935534	4.787685529
150	2	1.8	1.5207	42.67689384	1.84939858
151	3	-1.2	1.5207	45.53985537	3.973246737
152	3	-1.2	1.5207	42.61880548	7.8740416
153	3	-1.2	0	41.42379942	1.874252621
154	3	-1.2	1.5207	45.6754134	0.061197215
155	2	1.8	3.0414	45.69429945	1.05981383
156	2	1.8	3.0414	44.28673082	3.998218014
157	3	-1.2	3.0414	41.28824139	5.786302144
158	3	-1.2	3.0414	41.33137197	9.697179306
159	2	1.8	4.5621	44.18757585	6.921615986
160	2	1.8	4.5621	42.78000722	9.86002017
161	3	-1.2	4.5621	39.91707582	7.736054777
162	3	-1.2	4.5621	39.78151778	11.6481043
163	3	-1.2	4.5621	42.83809557	3.835377151
164	2	1.8	3.0414	39.76263173	10.64948768
165	2	1.8	3.0414	41.17017024	7.711200736
166	3	-1.2	3.0414	44.03313177	9.835048893
167	3	-1.2	3.0414	44.1686898	5.92299937
168	3	-1.2	3.0414	44.12552908	2.012239444
169	2	1.8	4.5621	41.26935534	4.787685529
170	2	1.8	4.5621	42.67689384	1.84939858
171	3	-1.2	4.5621	45.53985537	3.973246737
172	3	-1.2	4.5621	42.61880548	7.8740416
173	3	-1.2	3.0414	41.42379942	1.874252621
174	3	-1.2	4.5621	45.6754134	0.061197215
175	2	1.8	6.0828	45.69429945	1.05981383
176	2	1.8	6.0828	44.28673082	3.998218014
177	3	-1.2	6.0828	41.28824139	5.786302144
178	3	-1.2	6.0828	41.33137197	9.697179306
179	2	1.8	7.6035	44.18757585	6.921615986
180	2	1.8	7.6035	42.78000722	9.86002017
181	3	-1.2	7.6035	39.91707582	7.736054777
182	3	-1.2	7.6035	39.78151778	11.6481043
183	3	-1.2	7.6035	42.83809557	3.835377151
184	2	1.8	6.0828	39.76263173	10.64948768
185	2	1.8	6.0828	41.17017024	7.711200736
186	3	-1.2	6.0828	44.03313177	9.835048893
187	3	-1.2	6.0828	44.1686898	5.92299937
188	3	-1.2	6.0828	44.12552908	2.012239444
189	2	1.8	7.6035	41.26935534	4.787685529
190	2	1.8	7.6035	42.67689384	1.84939858
191	3	-1.2	7.6035	45.53985537	3.973246737
192	3	-1.2	7.6035	42.61880548	7.8740416
193	3	-1.2	6.0828	41.42379942	1.874252621
194	3	-1.2	7.6035	45.6754134	0.061197215
195	2	1.8	9.1242	44.28673082	3.998218014
196	3	-1.2	9.1242	41.33137197	9.697179306
197	2	1.8	10.6449	44.18757585	6.921615986
198	2	1.8	10.6449	42.78000722	9.86002017
199	2	1.8	9.1242	39.76263173	10.64948768
200	2	1.8	9.1242	41.17017024	7.711200736
201	3	-1.2	9.1242	44.03313177	9.835048893
202	3	-1.2	9.1242	44.1686898	5.92299937
203	2	1.8	9.1242	45.69429945	1.05981383
204	3	-1.2	9.1242	41.42379942	1.874252621
205	3	-1.2	9.1242	44.12552908	2.012239444
206	2	1.8	10.6449	42.67689384	1.84939858
207	3	-1.2	10.6449	45.53985537	3.973246737
208	3	-1.2	10.6449	45.6754134	0.061197215
209	2	1.8	12.1656	45.69429945	1.05981383
210	2	1.8	13.6863	44.18757585	6.921615986
211	3	-1.2	12.1656	44.03313177	9.835048893
212	3	-1.2	13.6863	45.53985537	3.973246737
213	2	1.8	15.207	45.69429945	1.05981383
214	2	1.8	16.7277	44.18757585	6.921615986
215	3	-1.2	15.207	44.03313177	9.835048893
216	3	-1.2	16.7277	45.53985537	3.973246737
217	2	1.8	18.2484	45.69429945	1.05981383
218	2	1.8	19.7691	44.18757585	6.921615986
219	3	-1.2	18.2484	44.03313177	9.835048893
220	3	-1.2	19.7691	45.53985537	3.973246737
221	2	1.8	21.2898	45.69429945	1.05981383
222	2	1.8	22.8105	44.18757585	6.921615986
223	3	-1.2	21.2898	44.03313177	9.835048893
224	3	-1.2	22.8105	45.53985537	3.973246737
225	2	1.8	24.3312	45.69429945	1.05981383
226	2	1.8	25.8519	44.18757585	6.921615986
227	3	-1.2	24.3312	44.03313177	9.835048893
228	3	-1.2	25.8519	45.53985537	3.973246737
229	2	1.8	27.3726	45.69429945	1.05981383
230	2	1.8	28.8933	44.18757585	6.921615986
231	3	-1.2	27.3726	44.03313177	9.835048893
232	3	-1.2	28.8933	45.53985537	3.973246737
233	2	1.8	30.414	45.69429945	1.05981383
234	2	1.8	31.9347	44.18757585	6.921615986
235	3	-1.2	30.414	44.03313177	9.835048893
236	3	-1.2	31.9347	45.53985537	3.973246737
237	2	1.8	33.4554	45.69429945	1.05981383
238	2	1.8	34.9761	44.18757585	6.921615986
239	3	-1.2	33.4554	44.03313177	9.835048893
240	3	-1.2	34.9761	45.53985537	3.973246737
241	3	-1.2	36.4968	44.03313177	9.835048893
242	3	-1.2	38.0175	45.53985537	3.973246737
243	2	1.8	34.9761	1.500307215	9.86002017
244	2	1.8	33.4554	4.414599453	1.05981383
245	2	1.8	34.9761	1.397193838	1.84939858
246	3	-1.2	34.9761	4.395713403	0.061197215
247	3	-1.2	36.4968	0.051671971	9.697179306
248	2	1.8	38.0175	2.907875852	6.921615986
249	2	1.8	38.0175	1.500307215	9.86002017
250	3	-1.2	38.0175	-1.362624182	7.736054777
251	3	-1.2	38.0175	-1.498182216	11.6481043
252	2	1.8	36.4968	-1.517068266	10.64948768
253	2	1.8	36.4968	-0.109529763	7.711200736
254	3	-1.2	36.4968	2.753431768	9.835048893
255	2	1.8	38.0175	-0.010344665	4.787685529
256	3	-1.2	38.0175	1.33910548	7.8740416
257	2	1.8	36.4968	4.414599453	1.05981383
258	2	1.8	36.4968	3.007030815	3.998218014
259	3	-1.2	36.4968	0.144099419	1.874252621
260	3	-1.2	38.0175	1.558395572	3.835377151
261	3	-1.2	36.4968	2.845829081	2.012239444
262	2	1.8	38.0175	1.397193838	1.84939858
263	3	-1.2	38.0175	4.260155369	3.973246737
264	3	-1.2	38.0175	4.395713403	0.061197215
265	2	1.8	39.5382	3.007030815	3.998218014
266	3	-1.2	39.5382	0.008541385	5.786302144
267	3	-1.2	39.5382	0.051671971	9.697179306
268	2	1.8	41.0589	2.907875852	6.921615986
269	2	1.8	41.0589	1.500307215	9.86002017
270	3	-1.2	41.0589	-1.362624182	7.736054777
271	3	-1.2	41.0589	-1.498182216	11.6481043
272	3	-1.2	41.0589	1.558395572	3.835377151
273	2	1.8	39.5382	-1.517068266	10.64948768
274	2	1.8	39.5382	-0.109529763	7.711200736
275	3	-1.2	39.5382	2.753431768	9.835048893
276	3	-1.2	39.5382	2.888989802	5.92299937
277	2	1.8	41.0589	-0.010344665	4.787685529
278	2	1.8	41.0589	1.397193838	1.84939858
279	3	-1.2	41.0589	4.260155369	3.973246737
280	3	-1.2	41.0589	1.33910548	7.8740416
281	2	1.8	39.5382	4.414599453	1.05981383
282	3	-1.2	39.5382	0.144099419	1.874252621
283	3	-1.2	39.5382	2.845829081	2.012239444
284	3	-1.2	41.0589	4.395713403	0.061197215
285	2	1.8	44.1003	1.500307215	9.86002017
286	3	-1.2	44.1003	-1.498182216	11.6481043
287	2	1.8	42.5796	-1.517068266	10.64948768
288	2	1.8	42.5796	4.414599453	1.05981383
289	2	1.8	42.5796	3.007030815	3.998218014
290	3	-1.2	42.5796	0.144099419	1.874252621
291	3	-1.2	42.5796	0.008541385	5.786302144
292	3	-1.2	42.5796	0.051671971	9.697179306
293	2	1.8	44.1003	2.907875852	6.921615986
294	3	-1.2	44.1003	-1.362624182	7.736054777
295	3	-1.2	44.1003	1.558395572	3.835377151
296	2	1.8	42.5796	-0.109529763	7.711200736
297	3	-1.2	42.5796	2.753431768	9.835048893
298	3	-1.2	42.5796	2.888989802	5.92299937
299	3	-1.2	42.5796	2.845829081	2.012239444
300	2	1.8	44.1003	-0.010344665	4.787685529
301	2	1.8	44.1003	1.397193838	1.84939858
302	3	-1.2	44.1003	4.260155369	3.973246737
303	3	-1.2	44.1003	4.395713403	0.061197215
304	3	-1.2	44.1003	1.33910548	7.8740416
305	2	1.8	47.1417	1.500307215	9.86002017
306	3	-1.2	47.1417	-1.498182216	11.6481043
307	2	1.8	45.621	-1.517068266	10.64948768
308	2	1.8	45.621	4.414599453	1.05981383
309	2	1.8	45.621	3.007030815	3.998218014
310	3	-1.2	45.621	0.144099419	1.874252621
311	3	-1.2	45.621	0.008541385	5.786302144
312	3	-1.2	45.621	0.051671971	9.697179306
313	2	1.8	47.1417	2.907875852	6.921615986
314	3	-1.2	47.1417	-1.362624182	7.736054777
315	3	-1.2	47.1417	1.558395572	3.835377151
316	2	1.8	45.621	-0.109529763	7.711200736
317	3	-1.2	45.621	2.753431768	9.835048893
318	3	-1.2	45.621	2.888989802	5.92299937
319	3	-1.2	45.621	2.845829081	2.012239444
320	2	1.8	47.1417	-0.010344665	4.787685529
321	2	1.8	47.1417	1.397193838	1.84939858
322	3	-1.2	47.1417	4.260155369	3.973246737
323	3	-1.2	47.1417	4.395713403	0.061197215
324	3	-1.2	47.1417	1.33910548	7.8740416
325	2	1.8	4.5621	1.500307215	9.86002017
326	3	-1.2	4.5621	-1.498182216	11.6481043
327	2	1.8	3.0414	-1.517068266	10.64948768
328	2	1.8	3.0414	4.414599453	1.05981383
329	2	1.8	3.0414	3.007030815	3.998218014
330	3	-1.2	3.0414	0.144099419	1.874252621
331	3	-1.2	3.0414	0.008541385	5.786302144
332	3	-1.2	3.0414	0.051671971	9.697179306
333	2	1.8	4.5621	2.907875852	6.921615986
334	3	-1.2	4.5621	-1.362624182	7.736054777
335	3	-1.2	4.5621	1.558395572	3.835377151
336	2	1.8	3.0414	-0.109529763	7.711200736
337	3	-1.2	3.0414	2.753431768	9.835048893
338	3	-1.2	3.0414	2.888989802	5.92299937
339	3	-1.2	3.0414	2.845829081	2.012239444
340	2	1.8	4.5621	-0.010344665	4.787685529
341	2	1.8	4.5621	1.397193838	1.84939858
342	3	-1.2	4.5621	4.260155369	3.973246737
343	3	-1.2	4.5621	4.395713403	0.061197215
344	3	-1.2	4.5621	1.33910548	7.8740416
345	2	1.8	6.0828	-1.517068266	10.64948768
346	2	1.8	6.0828	4.414599453	1.05981383
347	2	1.8	6.0828	3.007030815	3.998218014
348	3	-1.2	6.0828	0.144099419	1.874252621
349	3	-1.2	6.0828	0.008541385	5.786302144
350	3	-1.2	6.0828	0.051671971	9.697179306
351	2	1.8	7.6035	2.907875852	6.921615986
352	2	1.8	7.6035	1.500307215	9.86002017
353	3	-1.2	7.6035	-1.362624182	7.736054777
354	3	-1.2	7.6035	-1.498182216	11.6481043
355	3	-1.2	7.6035	1.558395572	3.835377151
356	2	1.8	6.0828	-0.109529763	7.711200736
357	3	-1.2	6.0828	2.753431768	9.835048893
358	3	-1.2	6.0828	2.888989802	5.92299937
359	3	-1.2	6.0828	2.845829081	2.012239444
360	2	1.8	7.6035	-0.010344665	4.787685529
361	2	1.8	7.6035	1.397193838	1.84939858
362	3	-1.2	7.6035	4.260155369	3.973246737
363	3	-1.2	7.6035	1.33910548	7.8740416
364	3	-1.2	7.6035	4.395713403	0.061197215
365	2	1.8	9.1242	3.007030815	3.998218014
366	3	-1.2	9.1242	0.008541385	5.786302144
367	3	-1.2	9.1242	0.051671971	9.697179306
368	2	1.8	10.6449	2.907875852	6.921615986
369	2	1.8	10.6449	1.500307215	9.86002017
370	3	-1.2	10.6449	-1.362624182	7.736054777
371	3	-1.2	10.6449	-1.498182216	11.6481043
372	2	1.8	9.1242	-1.517068266	10.64948768
373	2	1.8	9.1242	-0.109529763	7.711200736
374	3	-1.2	9.1242	2.753431768	9.835048893
375	3	-1.2	9.1242	2.888989802	5.92299937
376	2	1.8	10.6449	-0.010344665	4.787685529
377	3	-1.2	10.6449	1.33910548	7.8740416
378	2	1.8	9.1242	4.414599453	1.05981383
379	3	-1.2	9.1242	0.144099419	1.874252621
380	3	-1.2	10.6449	1.558395572	3.835377151
381	3	-1.2	9.1242	2.845829081	2.012239444
382	2	1.8	10.6449	1.397193838	1.84939858
383	3	-1.2	10.6449	4.260155369	3.973246737
384	3	-1.2	10.6449	4.395713403	0.061197215
385	3	-1.2	12.1656	0.051671971	9.697179306
386	2	1.8	13.6863	1.500307215	9.86002017
387	3	-1.2	13.6863	-1.498182216	11.6481043
388	2	1.8	12.1656	-1.517068266	10.64948768
389	2	1.8	12.1656	-0.109529763	7.711200736
390	3	-1.2	12.1656	2.753431768	9.835048893
391	2	1.8	12.1656	4.414599453	1.05981383
392	2	1.8	12.1656	3.007030815	3.998218014
393	3	-1.2	12.1656	0.144099419	1.874252621
394	3	-1.2	12.1656	0.008541385	5.786302144
395	2	1.8	13.6863	2.907875852	6.921615986
396	3	-1.2	13.6863	-1.362624182	7.736054777
397	3	-1.2	13.6863	1.558395572	3.835377151
398	3	-1.2	12.1656	2.888989802	5.92299937
399	3	-1.2	12.1656	2.845829081	2.012239444
400	2	1.8	13.6863	-0.010344665	4.787685529
401	2	1.8	13.6863	1.397193838	1.84939858
402	3	-1.2	13.6863	4.260155369	3.973246737
403	3	-1.2	13.6863	4.395713403	0.061197215
404	3	-1.2	13.6863	1.33910548	7.8740416
405	2	1.8	16.7277	1.500307215	9.86002017
406	3	-1.2	16.7277	-1.498182216	11.6481043
407	2	1.8	15.207	4.414599453	1.05981383
408	2	1.8	15.207	3.007030815	3.998218014
409	3	-1.2	15.207	0.144099419	1.874252621
410	3	-1.2	15.207	0.008541385	5.786302144
411	3	-1.2	15.207	0.051671971	9.697179306
412	2	1.8	16.7277	2.907875852	6.921615986
413	3	-1.2	16.7277	-1.362624182	7.736054777
414	3	-1.2	16.7277	1.558395572	3.835377151
415	2	1.8	15.207	-1.517068266	10.64948768
416	2	1.8	15.207	-0.109529763	7.711200736
417	3	-1.2	15.207	2.753431768	9.835048893
418	3	-1.2	15.207	2.888989802	5.92299937
419	3	-1.2	15.207	2.845829081	2.012239444
420	2	1.8	16.7277	-0.010344665	4.787685529
421	2	1.8	16.7277	1.397193838	1.84939858
422	3	-1.2	16.7277	4.260155369	3.973246737
423	3	-1.2	16.7277	4.395713403	0.061197215
424	3	-1.2	16.7277	1.33910548	7.8740416
425	2	1.8	19.7691	1.500307215	9.86002017
426	3	-1.2	19.7691	-1.498182216	11.6481043
427	2	1.8	18.2484	4.414599453	1.05981383
428	2	1.8	18.2484	3.007030815	3.998218014
429	3	-1.2	18.2484	0.144099419	1.874252621
430	3	-1.2	18.2484	0.008541385	5.786302144
431	3	-1.2	18.2484	0.051671971	9.697179306
432	2	1.8	19.7691	2.907875852	6.921615986
433	3	-1.2	19.7691	-1.362624182	7.736054777
434	3	-1.2	19.7691	1.558395572	3.835377151
435	2	1.8	18.2484	-1.517068266	10.64948768
436	2	1.8	18.2484	-0.109529763	7.711200736
437	3	-1.2	18.2484	2.753431768	9.835048893
438	3	-1.2	18.2484	2.888989802	5.92299937
439	3	-1.2	18.2484	2.845829081	2.012239444
440	2	1.8	19.7691	-0.010344665	4.787685529
441	2	1.8	19.7691	1.397193838	1.84939858
442	3	-1.2	19.7691	4.260155369	3.973246737
443	3	-1.2	19.7691	4.395713403	0.061197215
444	3	-1.2	19.7691	1.33910548	7.8740416
445	2	1.8	22.8105	1.500307215	9.86002017
446	3	-1.2	22.8105	-1.498182216	11.6481043
447	2	1.8	21.2898	4.414599453	1.05981383
448	2	1.8	21.2898	3.007030815	3.998218014
449	3	-1.2	21.2898	0.144099419	1.874252621
450	3	-1.2	21.2898	0.008541385	5.786302144
451	3	-1.2	21.2898	0.051671971	9.697179306
452	2	1.8	22.8105	2.907875852	6.921615986
453	3	-1.2	22.8105	-1.362624182	7.736054777
454	3	-1.2	22.8105	1.558395572	3.835377151
455	2	1.8	21.2898	-1.517068266	10.64948768
456	2	1.8	21.2898	-0.109529763	7.711200736
457	3	-1.2	21.2898	2.753431768	9.835048893
458	3	-1.2	21.2898	2.888989802	5.92299937
459	3	-1.2	21.2898	2.845829081	2.012239444
460	2	1.8	22.8105	-0.010344665	4.787685529
461	2	1.8	22.8105	1.397193838	1.84939858
462	3	-1.2	22.8105	4.260155369	3.973246737
463	3	-1.2	22.8105	4.395713403	0.061197215
464	3	-1.2	22.8105	1.33910548	7.8740416
465	2	1.8	25.8519	1.500307215	9.86002017
466	3	-1.2	25.8519	-1.498182216	11.6481043
467	2	1.8	24.3312	4.414599453	1.05981383
468	2	1.8	24.3312	3.007030815	3.998218014
469	3	-1.2	24.3312	0.144099419	1.874252621
470	3	-1.2	24.3312	0.008541385	5.786302144
471	3	-1.2	24.3312	0.051671971	9.697179306
472	2	1.8	25.8519	2.907875852	6.921615986
473	3	-1.2	25.8519	-1.362624182	7.736054777
474	3	-1.2	25.8519	1.558395572	3.835377151
475	2	1.8	24.3312	-1.517068266	10.64948768
476	2	1.8	24.3312	-0.109529763	7.711200736
477	3	-1.2	24.3312	2.753431768	9.835048893
478	3	-1.2	24.3312	2.888989802	5.92299937
479	3	-1.2	24.3312	2.845829081	2.012239444
480	2	1.8	25.8519	-0.010344665	4.787685529
481	2	1.8	25.8519	1.397193838	1.84939858
482	3	-1.2	25.8519	4.260155369	3.973246737
483	3	-1.2	25.8519	4.395713403	0.061197215
484	3	-1.2	25.8519	1.33910548	7.8740416
485	2	1.8	28.8933	1.500307215	9.86002017
486	3	-1.2	28.8933	-1.498182216	11.6481043
487	2	1.8	27.3726	4.414599453	1.05981383
488	2	1.8	27.3726	3.007030815	3.998218014
489	3	-1.2	27.3726	0.144099419	1.874252621
490	3	-1.2	27.3726	0.008541385	5.786302144
491	3	-1.2	27.3726	0.051671971	9.697179306
492	2	1.8	28.8933	2.907875852	6.921615986
493	3	-1.2	28.8933	-1.362624182	7.736054777
494	3	-1.2	28.8933	1.558395572	3.835377151
495	2	1.8	27.3726	-1.517068266	10.64948768
496	2	1.8	27.3726	-0.109529763	7.711200736
497	3	-1.2	27.3726	2.753431768	9.835048893
498	3	-1.2	27.3726	2.888989802	5.92299937
499	3	-1.2	27.3726	2.845829081	2.012239444
500	2	1.8	28.8933	-0.010344665	4.787685529
501	2	1.8	28.8933	1.397193838	1.84939858
502	3	-1.2	28.8933	4.260155369	3.973246737
503	3	-1.2	28.8933	4.395713403	0.061197215
504	3	-1.2	28.8933	1.33910548	7.8740416
505	2	1.8	31.9347	1.500307215	9.86002017
506	3	-1.2	31.9347	-1.498182216	11.6481043
507	2	1.8	30.414	4.414599453	1.05981383
508	2	1.8	30.414	3.007030815	3.998218014
509	3	-1.2	30.414	0.144099419	1.874252621
510	3	-1.2	30.414	0.008541385	5.786302144
511	3	-1.2	30.414	0.051671971	9.697179306
512	2	1.8	31.9347	2.907875852	6.921615986
513	3	-1.2	31.9347	-1.362624182	7.736054777
514	3	-1.2	31.9347	1.558395572	3.835377151
515	2	1.8	30.414	-1.517068266	10.64948768
516	2	1.8	30.414	-0.109529763	7.711200736
517	3	-1.2	30.414	2.753431768	9.835048893
518	3	-1.2	30.414	2.888989802	5.92299937
519	3	-1.2	30.414	2.845829081	2.012239444
520	2	1.8	31.9347	-0.010344665	4.787685529
521	2	1.8	31.9347	1.397193838	1.84939858
522	3	-1.2	31.9347	4.260155369	3.973246737
523	3	-1.2	31.9347	4.395713403	0.061197215
524	3	-1.2	31.9347	1.33910548	7.8740416
525	3	-1.2	34.9761	-1.498182216	11.6481043
526	2	1.8	33.4554	3.007030815	3.998218014
527	3	-1.2	33.4554	0.144099419	1.874252621
528	3	-1.2	33.4554	0.008541385	5.786302144
529	3	-1.2	33.4554	0.051671971	9.697179306
530	2	1.8	34.9761	2.907875852	6.921615986
531	3	-1.2	34.9761	-1.362624182	7.736054777
532	3	-1.2	34.9761	1.558395572	3.835377151
533	2	1.8	33.4554	-1.517068266	10.64948768
534	2	1.8	33.4554	-0.109529763	7.711200736
535	3	-1.2	33.4554	2.753431768	9.835048893
536	3	-1.2	33.4554	2.888989802	5.92299937
537	3	-1.2	33.4554	2.845829081	2.012239444
538	2	1.8	34.9761	-0.010344665	4.787685529
539	3	-1.2	34.9761	4.260155369	3.973246737
540	3	-1.2	34.9761	1.33910548	7.8740416
541	3	-1.2	36.4968	0.008541385	5.786302144
542	3	-1.2	36.4968	2.888989802	5.92299937
543	2	1.8	34.9761	7.294293838	1.84939858
544	2	1.8	38.0175	7.397407215	9.86002017
545	3	-1.2	38.0175	4.398917784	11.6481043
546	2	1.8	36.4968	4.380031734	10.64948768
547	2	1.8	36.4968	10.31169945	1.05981383
548	2	1.8	36.4968	8.904130815	3.998218014
549	3	-1.2	36.4968	6.041199419	1.874252621
550	2	1.8	38.0175	8.804975852	6.921615986
551	3	-1.2	38.0175	7.455495572	3.835377151
552	3	-1.2	36.4968	8.742929081	2.012239444
553	2	1.8	38.0175	5.886755335	4.787685529
554	2	1.8	38.0175	7.294293838	1.84939858
555	3	-1.2	38.0175	10.15725537	3.973246737
556	3	-1.2	38.0175	10.2928134	0.061197215
557	3	-1.2	39.5382	5.948771971	9.697179306
558	2	1.8	41.0589	8.804975852	6.921615986
559	2	1.8	41.0589	7.397407215	9.86002017
560	3	-1.2	41.0589	4.534475818	7.736054777
561	3	-1.2	41.0589	4.398917784	11.6481043
562	2	1.8	39.5382	4.380031734	10.64948768
563	2	1.8	39.5382	5.787570237	7.711200736
564	3	-1.2	39.5382	8.650531768	9.835048893
565	2	1.8	41.0589	5.886755335	4.787685529
566	3	-1.2	41.0589	7.23620548	7.8740416
567	2	1.8	39.5382	10.31169945	1.05981383
568	2	1.8	39.5382	8.904130815	3.998218014
569	3	-1.2	39.5382	6.041199419	1.874252621
570	3	-1.2	39.5382	5.905641385	5.786302144
571	3	-1.2	41.0589	7.455495572	3.835377151
572	3	-1.2	39.5382	8.786089802	5.92299937
573	3	-1.2	39.5382	8.742929081	2.012239444
574	2	1.8	41.0589	7.294293838	1.84939858
575	3	-1.2	41.0589	10.15725537	3.973246737
576	3	-1.2	41.0589	10.2928134	0.061197215
577	2	1.8	42.5796	8.904130815	3.998218014
578	3	-1.2	42.5796	5.905641385	5.786302144
579	3	-1.2	42.5796	5.948771971	9.697179306
580	2	1.8	44.1003	8.804975852	6.921615986
581	2	1.8	44.1003	7.397407215	9.86002017
582	3	-1.2	44.1003	4.534475818	7.736054777
583	3	-1.2	44.1003	4.398917784	11.6481043
584	3	-1.2	44.1003	7.455495572	3.835377151
585	2	1.8	42.5796	4.380031734	10.64948768
586	2	1.8	42.5796	5.787570237	7.711200736
587	3	-1.2	42.5796	8.650531768	9.835048893
588	3	-1.2	42.5796	8.786089802	5.92299937
589	2	1.8	44.1003	5.886755335	4.787685529
590	2	1.8	44.1003	7.294293838	1.84939858
591	3	-1.2	44.1003	7.23620548	7.8740416
592	2	1.8	42.5796	10.31169945	1.05981383
593	3	-1.2	42.5796	6.041199419	1.874252621
594	3	-1.2	42.5796	8.742929081	2.012239444
595	3	-1.2	44.1003	10.15725537	3.973246737
596	3	-1.2	44.1003	10.2928134	0.061197215
597	2	1.8	45.621	8.904130815	3.998218014
598	3	-1.2	45.621	6.041199419	1.874252621
599	3	-1.2	45.621	5.905641385	5.786302144
600	3	-1.2	45.621	5.948771971	9.697179306
601	2	1.8	47.1417	8.804975852	6.921615986
602	2	1.8	47.1417	7.397407215	9.86002017
603	3	-1.2	47.1417	4.534475818	7.736054777
604	3	-1.2	47.1417	4.398917784	11.6481043
605	3	-1.2	47.1417	7.455495572	3.835377151
606	2	1.8	45.621	4.380031734	10.64948768
607	2	1.8	45.621	5.787570237	7.711200736
608	3	-1.2	45.621	8.650531768	9.835048893
609	3	-1.2	45.621	8.786089802	5.92299937
610	2	1.8	47.1417	5.886755335	4.787685529
611	2	1.8	47.1417	7.294293838	1.84939858
612	3	-1.2	47.1417	7.23620548	7.8740416
613	2	1.8	45.621	10.31169945	1.05981383
614	3	-1.2	45.621	8.742929081	2.012239444
615	3	-1.2	47.1417	10.15725537	3.973246737
616	3	-1.2	47.1417	10.2928134	0.061197215
617	2	1.8	0	8.904130815	3.998218014
618	3	-1.2	0	6.041199419	1.874252621
619	3	-1.2	0	5.905641385	5.786302144
620	3	-1.2	0	5.948771971	9.697179306
621	2	1.8	1.5207	8.804975852	6.921615986
622	2	1.8	1.5207	7.397407215	9.86002017
623	3	-1.2	1.5207	4.534475818	7.736054777
624	3	-1.2	1.5207	4.398917784	11.6481043
625	3	-1.2	1.5207	7.455495572	3.835377151
626	2	1.8	0	4.380031734	10.64948768
627	2	1.8	0	5.787570237	7.711200736
628	3	-1.2	0	8.650531768	9.835048893
629	3	-1.2	0	8.786089802	5.92299937
630	2	1.8	1.5207	5.886755335	4.787685529
631	2	1.8	1.5207	7.294293838	1.84939858
632	3	-1.2	1.5207	7.23620548	7.8740416
633	2	1.8	0	10.31169945	1.05981383
634	3	-1.2	0	8.742929081	2.012239444
635	3	-1.2	1.5207	10.15725537	3.973246737
636	3	-1.2	1.5207	10.2928134	0.061197215
637	2	1.8	3.0414	8.904130815	3.998218014
638	3	-1.2	3.0414	6.041199419	1.874252621
639	3	-1.2	3.0414	5.905641385	5.786302144
640	3	-1.2	3.0414	5.948771971	9.697179306
641	2	1.8	4.5621	8.804975852	6.921615986
642	2	1.8	4.5621	7.397407215	9.86002017
643	3	-1.2	4.5621	4.534475818	7.736054777
644	3	-1.2	4.5621	4.398917784	11.6481043
645	3	-1.2	4.5621	7.455495572	3.835377151
646	2	1.8	3.0414	4.380031734	10.64948768
647	2	1.8	3.0414	5.787570237	7.711200736
648	3	-1.2	3.0414	8.650531768	9.835048893
649	3	-1.2	3.0414	8.786089802	5.92299937
650	2	1.8	4.5621	5.886755335	4.787685529
651	2	1.8	4.5621	7.294293838	1.84939858
652	3	-1.2	4.5621	7.23620548	7.8740416
653	2	1.8	3.0414	10.31169945	1.05981383
654	3	-1.2	3.0414	8.742929081	2.012239444
655	3	-1.2	4.5621	10.15725537	3.973246737
656	3	-1.2	4.5621	10.2928134	0.061197215
657	2	1.8	6.0828	8.904130815	3.998218014
658	3	-1.2	6.0828	5.905641385	5.786302144
659	3	-1.2	6.0828	5.948771971	9.697179306
660	2	1.8	7.6035	8.804975852	6.921615986
661	2	1.8	7.6035	7.397407215	9.86002017
662	3	-1.2	7.6035	4.534475818	7.736054777
663	3	-1.2	7.6035	4.398917784	11.6481043
664	2	1.8	6.0828	4.380031734	10.64948768
665	2	1.8	6.0828	5.787570237	7.711200736
666	3	-1.2	6.0828	8.650531768	9.835048893
667	3	-1.2	6.0828	8.786089802	5.92299937
668	2	1.8	7.6035	5.886755335	4.787685529
669	3	-1.2	7.6035	7.23620548	7.8740416
670	2	1.8	6.0828	10.31169945	1.05981383
671	3	-1.2	6.0828	6.041199419	1.874252621
672	3	-1.2	7.6035	7.455495572	3.835377151
673	3	-1.2	6.0828	8.742929081	2.012239444
674	2	1.8	7.6035	7.294293838	1.84939858
675	3	-1.2	7.6035	10.15725537	3.973246737
676	3	-1.2	7.6035	10.2928134	0.061197215
677	3	-1.2	9.1242	5.948771971	9.697179306
678	2	1.8	10.6449	7.397407215	9.86002017
679	3	-1.2	10.6449	4.398917784	11.6481043
680	2	1.8	9.1242	4.380031734	10.64948768
681	2	1.8	9.1242	5.787570237	7.711200736
682	3	-1.2	9.1242	8.650531768	9.835048893
683	2	1.8	9.1242	10.31169945	1.05981383
684	2	1.8	9.1242	8.904130815	3.998218014
685	3	-1.2	9.1242	6.041199419	1.874252621
686	3	-1.2	9.1242	5.905641385	5.786302144
687	2	1.8	10.6449	8.804975852	6.921615986
688	3	-1.2	10.6449	4.534475818	7.736054777
689	3	-1.2	10.6449	7.455495572	3.835377151
690	3	-1.2	9.1242	8.786089802	5.92299937
691	3	-1.2	9.1242	8.742929081	2.012239444
692	2	1.8	10.6449	5.886755335	4.787685529
693	2	1.8	10.6449	7.294293838	1.84939858
694	3	-1.2	10.6449	10.15725537	3.973246737
695	3	-1.2	10.6449	10.2928134	0.061197215
696	3	-1.2	10.6449	7.23620548	7.8740416
697	2	1.8	13.6863	7.397407215	9.86002017
698	3	-1.2	13.6863	4.398917784	11.6481043
699	2	1.8	12.1656	4.380031734	10.64948768
700	2	1.8	12.1656	10.31169945	1.05981383
701	2	1.8	12.1656	8.904130815	3.998218014